 -----------------------------------------------------
 #p TD(nstates=100) B3LYP/6-31+G(d) nosym geom=nocrowd
 -----------------------------------------------------

 ----
 ML29
 ----
 Symbolic Z-matrix:
 Charge =  0 Multiplicity = 1

                          Input orientation:
 ---------------------------------------------------------------------
 Center     Atomic      Atomic             Coordinates (Angstroms)
 Number     Number       Type             X           Y           Z
 ---------------------------------------------------------------------
      1          6           0        1.044523   -1.074059    0.570119
      2          6           0        2.417721   -1.111219    0.591537
      3          6           0        3.199849   -0.034980   -0.024347
      4          6           0        2.431809    1.094935   -0.554247
      5          6           0        1.058738    1.070420   -0.543826
      6          6           0        0.357909   -0.001139    0.004987
      7          7           0       -1.077959   -0.006115   -0.023751
      8          6           0       -1.776555    1.020310    0.556382
      9          6           0       -1.748475   -1.038869   -0.623940
     10          8           0        4.438780   -0.068943   -0.077215
     11          6           0       -3.155648    1.020414    0.521477
     12          6           0       -3.128675   -1.066624   -0.604653
     13          1           0        0.483580   -1.903420    0.986365
     14          1           0        0.509554    1.891467   -0.990730
     15          1           0       -3.620252   -1.881401   -1.116872
     16          1           0       -3.669280    1.829626    1.020788
     17          6           0       -3.871093   -0.032465   -0.042969
     18          6           1        3.122807    2.283991   -1.099910
     19          6           1        3.097570   -2.255725    1.238809
     20          6           1       -5.346278   -0.049054   -0.048360
     21          6           1       -1.008956   -2.095223   -1.354825
     22          6           1       -1.065895    2.108372    1.271139
     23          6           6        2.610167    3.562233   -0.853906
     24          6           6        4.342392    4.571887   -2.181607
     25          6           6        4.278511    2.179010   -1.879620
     26          6           6        4.873757    3.310037   -2.417903
     27          6           6        3.207911    4.693222   -1.391178
     28          1           6        4.816061    5.452818   -2.599018
     29          1           6        2.794060    5.672782   -1.179104
     30          1           6        1.745455    3.673394   -0.208857
     31          1           6        4.711637    1.203262   -2.043196
     32          1           6        5.766703    3.204695   -3.023551
     33          6           6        4.293686   -4.499925    2.436812
     34          6           6        2.582564   -2.811404    2.413966
     35          6           6        4.244494   -2.837203    0.689021
     36          6           6        3.167487   -3.921869    3.005505
     37          6           6        4.827792   -3.948323    1.278980
     38          1           6        4.680163   -2.397904   -0.195999
     39          1           6        5.714039   -4.384214    0.831877
     40          1           6        4.758382   -5.363629    2.897947
     41          1           6        2.750296   -4.326813    3.920665
     42          1           6        1.721942   -2.351281    2.886681
     43          6           6       -6.043041   -1.248021    0.112161
     44          6           6       -7.428855   -1.263150    0.110716
     45          6           6       -7.455655    1.115802   -0.221614
     46          6           6       -8.138825   -0.081853   -0.057816
     47          6           6       -6.069877    1.133238   -0.213610
     48          1           6       -5.546185    2.069596   -0.364205
     49          1           6       -9.221813   -0.094563   -0.061479
     50          1           6       -7.956109   -2.199256    0.247661
     51          1           6       -8.003794    2.039271   -0.362265
     52          1           6       -5.498365   -2.171781    0.266141
     53          6           6       -0.098609   -1.777620   -2.363148
     54          6           6       -1.276769   -3.430280   -1.067199
     55          6           6       -0.629928   -4.440342   -1.766020
     56          6           6        0.275235   -4.120396   -2.765696
     57          6           6        0.533315   -2.787548   -3.066052
     58          1           6       -1.971075   -3.681440   -0.273613
     59          1           6       -0.826874   -5.476201   -1.519095
     60          1           6        0.787831   -4.906679   -3.306009
     61          1           6        1.243268   -2.532414   -3.842699
     62          1           6        0.132879   -0.743225   -2.580014
     63          6           6       -0.165428    1.839233    2.302109
     64          6           6       -1.343719    3.428845    0.930451
     65          6           6       -0.716481    4.471825    1.599249
     66          6           6        0.448827    2.881353    2.973124
     67          6           6        0.181008    4.199480    2.619713
     68          1           6       -2.030013    3.642274    0.119107
     69          1           6       -0.923167    5.495526    1.312376
     70          1           6        0.680425    5.010540    3.135167
     71          1           6        1.154458    2.663194    3.764725
     72          1           6        0.075804    0.816238    2.558326
     73          1           0        2.932012    1.955675   -0.949244
     74          1           0        2.909853   -1.939710    1.060087
     75          1           0       -4.938958   -0.044473   -0.046871
     76          1           0       -1.213147   -1.803548   -1.153017
     77          1           0       -1.262118    1.807941    1.073783
 ---------------------------------------------------------------------

 SCF Done:  E(RB3LYP) =  -555.370047610     A.U. after   19 cycles

 Excitation energies and oscillator strengths:

 Excited state symmetry could not be determined.
 Excited State   1:      Singlet-?Sym    1.9305 eV  642.24 nm  f=0.2048  <S**2>=0.000
      45 -> 46         0.70899
 This state for optimization and/or second-order correction.
 Total Energy, E(TD-HF/TD-DFT) =  -555.299103306
 Copying the excited state density for this state as the 1-particle RhoCI density.

 Excited state symmetry could not be determined.
 Excited State   2:      Singlet-?Sym    2.4436 eV  507.38 nm  f=0.0030  <S**2>=0.000
      45 -> 47         0.70503

 Excited state symmetry could not be determined.
 Excited State   3:      Singlet-?Sym    2.5300 eV  490.05 nm  f=0.0022  <S**2>=0.000
      44 -> 46         0.70448

 Excited state symmetry could not be determined.
 Excited State   4:      Singlet-?Sym    3.4545 eV  358.91 nm  f=0.0013  <S**2>=0.000
      45 -> 48         0.69620
      45 -> 50        -0.10634

 Excited state symmetry could not be determined.
 Excited State   5:      Singlet-?Sym    3.5350 eV  350.74 nm  f=0.0000  <S**2>=0.000
      44 -> 47         0.70552

 Excited state symmetry could not be determined.
 Excited State   6:      Singlet-?Sym    3.5604 eV  348.23 nm  f=0.0002  <S**2>=0.000
      43 -> 46         0.70374

 Excited state symmetry could not be determined.
 Excited State   7:      Singlet-?Sym    3.8402 eV  322.86 nm  f=0.0209  <S**2>=0.000
      45 -> 49         0.69570

 Excited state symmetry could not be determined.
 Excited State   8:      Singlet-?Sym    3.9539 eV  313.58 nm  f=0.0080  <S**2>=0.000
      45 -> 48         0.10514
      45 -> 49         0.10051
      45 -> 50         0.68305

 Excited state symmetry could not be determined.
 Excited State   9:      Singlet-?Sym    4.1944 eV  295.59 nm  f=0.0003  <S**2>=0.000
      45 -> 51         0.69439

 Excited state symmetry could not be determined.
 Excited State  10:      Singlet-?Sym    4.2574 eV  291.22 nm  f=0.0468  <S**2>=0.000
      45 -> 52         0.68774

 Excited state symmetry could not be determined.
 Excited State  11:      Singlet-?Sym    4.4750 eV  277.06 nm  f=0.0004  <S**2>=0.000
      44 -> 48         0.62287
      44 -> 50        -0.30203
      44 -> 52         0.12317

 Excited state symmetry could not be determined.
 Excited State  12:      Singlet-?Sym    4.5204 eV  274.28 nm  f=0.0064  <S**2>=0.000
      43 -> 47         0.70236

 Excited state symmetry could not be determined.
 Excited State  13:      Singlet-?Sym    4.6115 eV  268.86 nm  f=0.0008  <S**2>=0.000
      44 -> 48         0.32339
      44 -> 50         0.49521
      44 -> 52        -0.36722

 Excited state symmetry could not be determined.
 Excited State  14:      Singlet-?Sym    4.7359 eV  261.79 nm  f=0.0077  <S**2>=0.000
      45 -> 53         0.12560
      45 -> 54         0.50512
      45 -> 56        -0.46324

 Excited state symmetry could not be determined.
 Excited State  15:      Singlet-?Sym    4.7837 eV  259.18 nm  f=0.0395  <S**2>=0.000
      42 -> 46        -0.13346
      45 -> 53         0.55918
      45 -> 55         0.26087
      45 -> 56         0.23501

 Excited state symmetry could not be determined.
 Excited State  16:      Singlet-?Sym    4.8187 eV  257.30 nm  f=0.0006  <S**2>=0.000
      44 -> 49         0.63901
      44 -> 53         0.24510

 Excited state symmetry could not be determined.
 Excited State  17:      Singlet-?Sym    4.8847 eV  253.82 nm  f=0.0557  <S**2>=0.000
      42 -> 46         0.17970
      45 -> 53        -0.28652
      45 -> 54         0.24803
      45 -> 55         0.51814
      45 -> 56         0.17206

 Excited state symmetry could not be determined.
 Excited State  18:      Singlet-?Sym    4.9148 eV  252.27 nm  f=0.0046  <S**2>=0.000
      45 -> 54         0.36440
      45 -> 55        -0.37590
      45 -> 56         0.40592
      45 -> 57         0.19049

 Excited state symmetry could not be determined.
 Excited State  19:      Singlet-?Sym    5.0430 eV  245.85 nm  f=0.0021  <S**2>=0.000
      44 -> 49        -0.26726
      44 -> 51         0.32565
      44 -> 52        -0.12502
      44 -> 53         0.48488
      44 -> 54        -0.14705
      44 -> 58         0.14194

 Excited state symmetry could not be determined.
 Excited State  20:      Singlet-?Sym    5.1201 eV  242.15 nm  f=0.0008  <S**2>=0.000
      44 -> 50         0.36703
      44 -> 51         0.12831
      44 -> 52         0.55567
      44 -> 56         0.11112

 Excited state symmetry could not be determined.
 Excited State  21:      Singlet-?Sym    5.1830 eV  239.21 nm  f=0.0254  <S**2>=0.000
      42 -> 46         0.47352
      45 -> 54        -0.14435
      45 -> 56        -0.10655
      45 -> 57         0.41111
      45 -> 58        -0.21503

 Excited state symmetry could not be determined.
 Excited State  22:      Singlet-?Sym    5.2129 eV  237.84 nm  f=0.0078  <S**2>=0.000
      42 -> 46        -0.35881
      45 -> 53        -0.10980
      45 -> 57         0.51310
      45 -> 58         0.20491
      45 -> 61         0.10028

 Excited state symmetry could not be determined.
 Excited State  23:      Singlet-?Sym    5.2789 eV  234.87 nm  f=0.0058  <S**2>=0.000
      44 -> 49         0.10455
      44 -> 51         0.59588
      44 -> 53        -0.30494
      44 -> 58        -0.12424

 Excited state symmetry could not be determined.
 Excited State  24:      Singlet-?Sym    5.3431 eV  232.05 nm  f=0.0559  <S**2>=0.000
      40 -> 47        -0.15868
      41 -> 46         0.62589
      42 -> 47        -0.23787

 Excited state symmetry could not be determined.
 Excited State  25:      Singlet-?Sym    5.4377 eV  228.01 nm  f=0.0105  <S**2>=0.000
      45 -> 58        -0.22828
      45 -> 59         0.64154

 Excited state symmetry could not be determined.
 Excited State  26:      Singlet-?Sym    5.4944 eV  225.66 nm  f=0.0673  <S**2>=0.000
      42 -> 46         0.21221
      43 -> 48         0.24516
      43 -> 50        -0.18112
      45 -> 53         0.12312
      45 -> 58         0.51689
      45 -> 59         0.20288

 Excited state symmetry could not be determined.
 Excited State  27:      Singlet-?Sym    5.5414 eV  223.74 nm  f=0.0293  <S**2>=0.000
      43 -> 48         0.63997
      43 -> 52        -0.12275
      45 -> 58        -0.21040

 Excited state symmetry could not be determined.
 Excited State  28:      Singlet-?Sym    5.5712 eV  222.55 nm  f=0.0339  <S**2>=0.000
      44 -> 54        -0.30442
      44 -> 56         0.57806
      44 -> 59        -0.18968

 Excited state symmetry could not be determined.
 Excited State  29:      Singlet-?Sym    5.8101 eV  213.39 nm  f=0.0112  <S**2>=0.000
      45 -> 60         0.66528
      45 -> 63        -0.11062

 Excited state symmetry could not be determined.
 Excited State  30:      Singlet-?Sym    5.8489 eV  211.98 nm  f=0.0022  <S**2>=0.000
      44 -> 53         0.16714
      44 -> 54         0.44780
      44 -> 55         0.44007
      44 -> 56         0.19533
      44 -> 57         0.11919

 Excited state symmetry could not be determined.
 Excited State  31:      Singlet-?Sym    5.8898 eV  210.51 nm  f=0.0095  <S**2>=0.000
      45 -> 61         0.64784
      45 -> 63        -0.15276

 Excited state symmetry could not be determined.
 Excited State  32:      Singlet-?Sym    5.9207 eV  209.41 nm  f=0.0073  <S**2>=0.000
      43 -> 49         0.67023

 Excited state symmetry could not be determined.
 Excited State  33:      Singlet-?Sym    5.9267 eV  209.19 nm  f=0.0029  <S**2>=0.000
      44 -> 53        -0.12665
      44 -> 54        -0.33043
      44 -> 55         0.51196
      44 -> 56        -0.21230
      44 -> 57        -0.17967

 Excited state symmetry could not be determined.
 Excited State  34:      Singlet-?Sym    5.9345 eV  208.92 nm  f=0.0059  <S**2>=0.000
      40 -> 46        -0.10681
      43 -> 49         0.11193
      45 -> 61        -0.11637
      45 -> 62         0.59946
      45 -> 63        -0.25277

 Excited state symmetry could not be determined.
 Excited State  35:      Singlet-?Sym    6.0278 eV  205.69 nm  f=0.0391  <S**2>=0.000
      39 -> 46        -0.12441
      40 -> 46         0.61553
      41 -> 47         0.22239
      43 -> 50         0.13034
      45 -> 62         0.11000

 Excited state symmetry could not be determined.
 Excited State  36:      Singlet-?Sym    6.0555 eV  204.75 nm  f=0.0535  <S**2>=0.000
      43 -> 48         0.12378
      43 -> 49         0.10298
      43 -> 50         0.47613
      43 -> 52         0.26496
      45 -> 62        -0.13133
      45 -> 63        -0.33499

 Excited state symmetry could not be determined.
 Excited State  37:      Singlet-?Sym    6.0710 eV  204.22 nm  f=0.0263  <S**2>=0.000
      40 -> 46        -0.14073
      43 -> 50         0.31011
      43 -> 52         0.15169
      45 -> 61         0.12429
      45 -> 62         0.22618
      45 -> 63         0.49490
      45 -> 64         0.12851

 Excited state symmetry could not be determined.
 Excited State  38:      Singlet-?Sym    6.1419 eV  201.86 nm  f=0.0380  <S**2>=0.000
      40 -> 47        -0.12166
      41 -> 46         0.20508
      42 -> 47         0.65243

 Excited state symmetry could not be determined.
 Excited State  39:      Singlet-?Sym    6.1778 eV  200.69 nm  f=0.0040  <S**2>=0.000
      43 -> 51        -0.19130
      44 -> 53        -0.13495
      44 -> 54         0.17148
      44 -> 57        -0.35480
      44 -> 58         0.41055
      44 -> 60        -0.12596
      45 -> 64        -0.24993

 Excited state symmetry could not be determined.
 Excited State  40:      Singlet-?Sym    6.1838 eV  200.50 nm  f=0.0331  <S**2>=0.000
      43 -> 51         0.34824
      44 -> 57        -0.20649
      44 -> 58         0.21476
      45 -> 63        -0.10745
      45 -> 64         0.46309

 Excited state symmetry could not be determined.
 Excited State  41:      Singlet-?Sym    6.2239 eV  199.21 nm  f=0.0159  <S**2>=0.000
      43 -> 51         0.54576
      45 -> 64        -0.40711

 Excited state symmetry could not be determined.
 Excited State  42:      Singlet-?Sym    6.2525 eV  198.29 nm  f=0.0005  <S**2>=0.000
      44 -> 53        -0.10425
      44 -> 57         0.50946
      44 -> 58         0.40191
      44 -> 59         0.12123
      44 -> 60        -0.11147
      44 -> 61         0.13578

 Excited state symmetry could not be determined.
 Excited State  43:      Singlet-?Sym    6.3744 eV  194.50 nm  f=0.0013  <S**2>=0.000
      44 -> 56         0.21454
      44 -> 59         0.62207
      44 -> 61         0.14283
      44 -> 62        -0.11347

 Excited state symmetry could not be determined.
 Excited State  44:      Singlet-?Sym    6.3780 eV  194.39 nm  f=0.0379  <S**2>=0.000
      39 -> 46         0.14505
      41 -> 47         0.21060
      45 -> 65         0.62807

 Excited state symmetry could not be determined.
 Excited State  45:      Singlet-?Sym    6.4425 eV  192.45 nm  f=0.0633  <S**2>=0.000
      38 -> 46        -0.16809
      39 -> 46         0.46152
      41 -> 47         0.40657
      45 -> 65        -0.25723

 Excited state symmetry could not be determined.
 Excited State  46:      Singlet-?Sym    6.5253 eV  190.00 nm  f=0.0433  <S**2>=0.000
      36 -> 46         0.15351
      38 -> 46         0.56104
      39 -> 46         0.30356
      43 -> 52         0.12471
      43 -> 53        -0.14545

 Excited state symmetry could not be determined.
 Excited State  47:      Singlet-?Sym    6.5776 eV  188.50 nm  f=0.2003  <S**2>=0.000
      38 -> 46         0.21368
      43 -> 50         0.16222
      43 -> 52        -0.33246
      43 -> 53         0.10439
      43 -> 54         0.12037
      44 -> 60         0.16738
      44 -> 63        -0.10615
      45 -> 66         0.43627

 Excited state symmetry could not be determined.
 Excited State  48:      Singlet-?Sym    6.5915 eV  188.10 nm  f=0.1218  <S**2>=0.000
      38 -> 46        -0.14128
      43 -> 50        -0.12333
      43 -> 52         0.24175
      43 -> 53        -0.16101
      44 -> 60        -0.15292
      45 -> 66         0.52105
      45 -> 67         0.17501

 Excited state symmetry could not be determined.
 Excited State  49:      Singlet-?Sym    6.6641 eV  186.05 nm  f=0.1290  <S**2>=0.000
      42 -> 50         0.11841
      42 -> 52        -0.10123
      43 -> 52         0.14112
      43 -> 53         0.55044
      43 -> 54        -0.14130
      43 -> 55         0.10274
      44 -> 60        -0.13503
      45 -> 67        -0.15270

 Excited state symmetry could not be determined.
 Excited State  50:      Singlet-?Sym    6.6809 eV  185.58 nm  f=0.0143  <S**2>=0.000
      43 -> 53         0.17958
      44 -> 60         0.12165
      45 -> 67         0.64212

 Excited state symmetry could not be determined.
 Excited State  51:      Singlet-?Sym    6.7522 eV  183.62 nm  f=0.0345  <S**2>=0.000
      43 -> 52         0.13203
      43 -> 54        -0.14517
      44 -> 58         0.21367
      44 -> 60         0.52817
      44 -> 61        -0.16867
      44 -> 62        -0.14643
      44 -> 65         0.15939
      45 -> 67        -0.10506

 Excited state symmetry could not be determined.
 Excited State  52:      Singlet-?Sym    6.8309 eV  181.50 nm  f=0.0026  <S**2>=0.000
      43 -> 54         0.42785
      43 -> 56        -0.24226
      44 -> 61        -0.27588
      44 -> 62        -0.18564
      44 -> 63         0.26175

 Excited state symmetry could not be determined.
 Excited State  53:      Singlet-?Sym    6.8588 eV  180.77 nm  f=0.0292  <S**2>=0.000
      38 -> 46        -0.10957
      39 -> 46         0.16004
      41 -> 47        -0.10658
      41 -> 48         0.57335
      44 -> 61         0.19081
      44 -> 63        -0.14255

 Excited state symmetry could not be determined.
 Excited State  54:      Singlet-?Sym    6.8890 eV  179.97 nm  f=0.0226  <S**2>=0.000
      41 -> 48        -0.25237
      43 -> 52         0.12218
      43 -> 54         0.20493
      43 -> 55        -0.12925
      43 -> 56        -0.30288
      44 -> 59        -0.12893
      44 -> 60         0.11902
      44 -> 61         0.41050
      44 -> 62        -0.12517
      45 -> 69         0.10657

 Excited state symmetry could not be determined.
 Excited State  55:      Singlet-?Sym    6.9038 eV  179.59 nm  f=0.0049  <S**2>=0.000
      43 -> 55        -0.30323
      43 -> 56        -0.27643
      44 -> 59         0.13012
      44 -> 61        -0.26715
      44 -> 62         0.34060
      44 -> 63        -0.15860
      45 -> 68         0.21093
      45 -> 69         0.11781

 Excited state symmetry could not be determined.
 Excited State  56:      Singlet-?Sym    6.9181 eV  179.22 nm  f=0.0316  <S**2>=0.000
      37 -> 46        -0.15291
      41 -> 48         0.11878
      43 -> 52        -0.11246
      43 -> 54        -0.12618
      43 -> 55        -0.28365
      44 -> 62        -0.26571
      44 -> 63         0.16318
      45 -> 68         0.41819
      45 -> 69        -0.11045

 Excited state symmetry could not be determined.
 Excited State  57:      Singlet-?Sym    6.9383 eV  178.69 nm  f=0.0198  <S**2>=0.000
      37 -> 46         0.12895
      41 -> 48        -0.11097
      43 -> 53        -0.10435
      43 -> 54         0.13532
      43 -> 55         0.37738
      43 -> 56         0.10668
      45 -> 68         0.47576

 Excited state symmetry could not be determined.
 Excited State  58:      Singlet-?Sym    6.9675 eV  177.95 nm  f=0.1512  <S**2>=0.000
      37 -> 46        -0.18102
      39 -> 46        -0.13744
      41 -> 47         0.15921
      41 -> 48         0.18884
      43 -> 55         0.12995
      44 -> 62        -0.10190
      45 -> 65        -0.10096
      45 -> 69         0.54392

 Excited state symmetry could not be determined.
 Excited State  59:      Singlet-?Sym    6.9785 eV  177.67 nm  f=0.0020  <S**2>=0.000
      37 -> 46         0.23231
      40 -> 47        -0.11320
      42 -> 48         0.14179
      43 -> 54         0.16060
      43 -> 55        -0.27865
      43 -> 56         0.38784
      43 -> 57         0.21013
      45 -> 69         0.27315

 Excited state symmetry could not be determined.
 Excited State  60:      Singlet-?Sym    6.9985 eV  177.16 nm  f=0.0821  <S**2>=0.000
      36 -> 46        -0.12345
      40 -> 47         0.52085
      41 -> 46         0.12221
      42 -> 48        -0.33870
      43 -> 55        -0.12252
      43 -> 56         0.11254

 Excited state symmetry could not be determined.
 Excited State  61:      Singlet-?Sym    7.0392 eV  176.13 nm  f=0.0230  <S**2>=0.000
      36 -> 46        -0.33608
      40 -> 47         0.23051
      42 -> 48         0.50534

 Excited state symmetry could not be determined.
 Excited State  62:      Singlet-?Sym    7.0652 eV  175.49 nm  f=0.0206  <S**2>=0.000
      33 -> 46         0.12894
      35 -> 46        -0.17272
      36 -> 46         0.51940
      38 -> 46        -0.11308
      40 -> 47         0.26996
      42 -> 48         0.24465

 Excited state symmetry could not be determined.
 Excited State  63:      Singlet-?Sym    7.0789 eV  175.15 nm  f=0.0140  <S**2>=0.000
      37 -> 46         0.14986
      43 -> 52        -0.10802
      43 -> 54        -0.13386
      44 -> 60         0.11388
      44 -> 61         0.16481
      44 -> 62         0.22809
      44 -> 63         0.41955
      44 -> 64         0.32989
      44 -> 67        -0.10502

 Excited state symmetry could not be determined.
 Excited State  64:      Singlet-?Sym    7.0955 eV  174.74 nm  f=0.1227  <S**2>=0.000
      35 -> 46         0.15972
      37 -> 46         0.40685
      43 -> 50         0.10310
      43 -> 52        -0.21225
      43 -> 54        -0.26717
      43 -> 56        -0.18649
      44 -> 60        -0.10904
      44 -> 62        -0.15473
      44 -> 63        -0.13095
      44 -> 64        -0.14611

 Excited state symmetry could not be determined.
 Excited State  65:      Singlet-?Sym    7.1812 eV  172.65 nm  f=0.0122  <S**2>=0.000
      33 -> 46         0.10253
      35 -> 46         0.63833
      36 -> 46         0.16881
      37 -> 46        -0.17698

 Excited state symmetry could not be determined.
 Excited State  66:      Singlet-?Sym    7.1871 eV  172.51 nm  f=0.0005  <S**2>=0.000
      44 -> 62        -0.28159
      44 -> 63        -0.26826
      44 -> 64         0.55605
      44 -> 68         0.11839

 Excited state symmetry could not be determined.
 Excited State  67:      Singlet-?Sym    7.2445 eV  171.14 nm  f=0.0092  <S**2>=0.000
      41 -> 49         0.45934
      42 -> 50        -0.21934
      43 -> 57         0.18605
      43 -> 58        -0.23383
      45 -> 70         0.28426

 Excited state symmetry could not be determined.
 Excited State  68:      Singlet-?Sym    7.2560 eV  170.87 nm  f=0.0111  <S**2>=0.000
      41 -> 49        -0.43343
      43 -> 58        -0.13386
      45 -> 70         0.49405

 Excited state symmetry could not be determined.
 Excited State  69:      Singlet-?Sym    7.2783 eV  170.35 nm  f=0.0547  <S**2>=0.000
      37 -> 46        -0.11224
      41 -> 47        -0.10229
      41 -> 49        -0.23933
      42 -> 50        -0.20084
      42 -> 52         0.11291
      43 -> 54        -0.13234
      43 -> 56        -0.11641
      43 -> 57         0.39985
      43 -> 58        -0.16371
      45 -> 70        -0.31756

 Excited state symmetry could not be determined.
 Excited State  70:      Singlet-?Sym    7.3140 eV  169.52 nm  f=0.0747  <S**2>=0.000
      37 -> 46        -0.14742
      39 -> 46         0.10562
      41 -> 47        -0.14410
      42 -> 50         0.30441
      42 -> 52        -0.14276
      43 -> 57         0.32009
      43 -> 58         0.31671
      45 -> 70         0.13327

 Excited state symmetry could not be determined.
 Excited State  71:      Singlet-?Sym    7.3543 eV  168.59 nm  f=0.0681  <S**2>=0.000
      37 -> 46        -0.13925
      39 -> 46         0.17206
      40 -> 46         0.10762
      41 -> 47        -0.24000
      43 -> 57        -0.25663
      44 -> 65         0.34729
      45 -> 71         0.21502

 Excited state symmetry could not be determined.
 Excited State  72:      Singlet-?Sym    7.3732 eV  168.16 nm  f=0.0106  <S**2>=0.000
      41 -> 47         0.11902
      42 -> 49        -0.11743
      43 -> 57         0.10746
      44 -> 61         0.12014
      44 -> 62         0.12635
      44 -> 65         0.49563
      44 -> 67         0.10526
      44 -> 69         0.12401
      45 -> 71        -0.27123

 Excited state symmetry could not be determined.
 Excited State  73:      Singlet-?Sym    7.3947 eV  167.67 nm  f=0.0189  <S**2>=0.000
      41 -> 47         0.14137
      43 -> 57         0.12410
      43 -> 58         0.11285
      44 -> 65         0.10473
      45 -> 71         0.56795
      45 -> 72         0.11865

 Excited state symmetry could not be determined.
 Excited State  74:      Singlet-?Sym    7.4198 eV  167.10 nm  f=0.0014  <S**2>=0.000
      42 -> 49         0.65729
      43 -> 58         0.10470

 Excited state symmetry could not be determined.
 Excited State  75:      Singlet-?Sym    7.4717 eV  165.94 nm  f=0.0721  <S**2>=0.000
      39 -> 47         0.61860
      41 -> 46         0.10011
      41 -> 51        -0.24297

 Excited state symmetry could not be determined.
 Excited State  76:      Singlet-?Sym    7.5000 eV  165.31 nm  f=0.0138  <S**2>=0.000
      44 -> 66         0.65645
      44 -> 68        -0.13334
      44 -> 71         0.10405

 Excited state symmetry could not be determined.
 Excited State  77:      Singlet-?Sym    7.5146 eV  164.99 nm  f=0.0171  <S**2>=0.000
      36 -> 47         0.22047
      38 -> 47         0.63339
      41 -> 51         0.12417

 Excited state symmetry could not be determined.
 Excited State  78:      Singlet-?Sym    7.5537 eV  164.14 nm  f=0.0006  <S**2>=0.000
      43 -> 59         0.62936
      45 -> 72         0.24947

 Excited state symmetry could not be determined.
 Excited State  79:      Singlet-?Sym    7.5624 eV  163.95 nm  f=0.0041  <S**2>=0.000
      41 -> 50        -0.37709
      42 -> 50        -0.13624
      43 -> 58         0.13660
      43 -> 59        -0.22977
      45 -> 72         0.44293

 Alpha  occ. eigenvalues --  -18.97151 -14.36143 -10.16789 -10.16335 -10.14062
 Alpha  occ. eigenvalues --  -10.13893 -10.13835 -10.12194 -10.11383 -10.08977
 Alpha  occ. eigenvalues --  -10.08890 -10.06283 -10.06099  -0.93592  -0.87274
 Alpha  occ. eigenvalues --   -0.77267  -0.72546  -0.71424  -0.64222  -0.62450
 Alpha  occ. eigenvalues --   -0.58414  -0.56613  -0.49941  -0.49901  -0.45799
 Alpha  occ. eigenvalues --   -0.43516  -0.41679  -0.40106  -0.38062  -0.36796
 Alpha  occ. eigenvalues --   -0.34840  -0.33254  -0.32027  -0.31649  -0.30252
 Alpha  occ. eigenvalues --   -0.29310  -0.27307  -0.25646  -0.25488  -0.23596
 Alpha  occ. eigenvalues --   -0.21017  -0.20422  -0.14804  -0.10504  -0.07126
 Alpha virt. eigenvalues --    0.00880   0.04182   0.07439   0.08625   0.09557
 Alpha virt. eigenvalues --    0.10470   0.10801   0.12434   0.12705   0.13011
 Alpha virt. eigenvalues --    0.13392   0.13958   0.14764   0.15194   0.16608

 Mulliken charges:
               1
     1  C   -0.252043
     2  C   -0.151959
     3  C    0.054717
     4  C   -0.212603
     5  C    0.039344
     6  C   -0.311234
     7  N    0.052228
     8  C   -0.088687
     9  C   -0.104114
    10  O   -0.690861
    11  C   -0.018581
    12  C   -0.007004
    13  H    0.153995
    14  H    0.153433
    15  H    0.185890
    16  H    0.189071
    17  C   -0.627785
    18  C    0.000000
    19  C    0.000000
    20  C    0.000000
    21  C    0.000000
    22  C    0.000000
    23  C    0.047757
    24  C    0.063891
    25  C   -0.002831
    26  C   -0.347467
    27  C   -0.377006
    28  H    0.082642
    29  H    0.155379
    30  H    0.090038
    31  H    0.123395
    32  H    0.159899
    33  C   -0.027875
    34  C    0.014075
    35  C   -0.047869
    36  C   -0.318701
    37  C   -0.250727
    38  H    0.125036
    39  H    0.138582
    40  H    0.102100
    41  H    0.153109
    42  H    0.057161
    43  C   -0.363173
    44  C    0.168830
    45  C    0.167255
    46  C   -0.366408
    47  C   -0.360506
    48  H    0.161568
    49  H    0.168879
    50  H    0.067362
    51  H    0.067867
    52  H    0.166909
    53  C   -0.449678
    54  C   -0.360462
    55  C    0.222315
    56  C   -0.462322
    57  C    0.261235
    58  H    0.128359
    59  H    0.057910
    60  H    0.186525
    61  H    0.061397
    62  H    0.154152
    63  C   -0.572868
    64  C   -0.523167
    65  C    0.398891
    66  C    0.460776
    67  C   -0.643869
    68  H    0.164920
    69  H    0.027350
    70  H    0.220154
    71  H    0.028509
    72  H    0.154242
    73  H    0.192126
    74  H    0.211648
    75  H    0.360224
    76  H    0.412529
    77  H    0.459665
 Sum of Mulliken charges =  -0.66646

 Dipole moment (field-independent basis, Debye):
    X=            -12.5691    Y=              0.0268    Z=             -0.6318  Tot=             12.5850
 Quadrupole moment (field-independent basis, Debye-Ang):
   XX=            -95.2461   YY=            -46.1943   ZZ=            -65.5440
   XY=             -0.8078   XZ=             -4.8563   YZ=              6.7250

 Normal termination of Gaussian DV at Sun Nov 25 20:07:17 2018.
