 -------------------------------------------------------------
 #p Td(nstates=100) CAM-B3LYP/6-311++G(d,p) nosym geom=nocrowd
 -------------------------------------------------------------

 ----
 MH29
 ----
 Symbolic Z-matrix:
 Charge =  0 Multiplicity = 1

                          Input orientation:
 ---------------------------------------------------------------------
 Center     Atomic      Atomic             Coordinates (Angstroms)
 Number     Number       Type             X           Y           Z
 ---------------------------------------------------------------------
      1          6           0        1.044523   -1.074059    0.570119
      2          6           0        2.417721   -1.111219    0.591537
      3          6           0        3.199849   -0.034980   -0.024347
      4          6           0        2.431809    1.094935   -0.554247
      5          6           0        1.058738    1.070420   -0.543826
      6          6           0        0.357909   -0.001139    0.004987
      7          7           0       -1.077959   -0.006115   -0.023751
      8          6           0       -1.776555    1.020310    0.556382
      9          6           0       -1.748475   -1.038869   -0.623940
     10          8           0        4.438780   -0.068943   -0.077215
     11          6           0       -3.155648    1.020414    0.521477
     12          6           0       -3.128675   -1.066624   -0.604653
     13          1           0        0.483580   -1.903420    0.986365
     14          1           0        0.509554    1.891467   -0.990730
     15          1           0       -3.620252   -1.881401   -1.116872
     16          1           0       -3.669280    1.829626    1.020788
     17          6           0       -3.871093   -0.032465   -0.042969
     18          6           1        3.122807    2.283991   -1.099910
     19          6           1        3.097570   -2.255725    1.238809
     20          6           1       -5.346278   -0.049054   -0.048360
     21          6           1       -1.008956   -2.095223   -1.354825
     22          6           1       -1.065895    2.108372    1.271139
     23          6           6        2.610167    3.562233   -0.853906
     24          6           6        4.342392    4.571887   -2.181607
     25          6           6        4.278511    2.179010   -1.879620
     26          6           6        4.873757    3.310037   -2.417903
     27          6           6        3.207911    4.693222   -1.391178
     28          1           6        4.816061    5.452818   -2.599018
     29          1           6        2.794060    5.672782   -1.179104
     30          1           6        1.745455    3.673394   -0.208857
     31          1           6        4.711637    1.203262   -2.043196
     32          1           6        5.766703    3.204695   -3.023551
     33          6           6        4.293686   -4.499925    2.436812
     34          6           6        2.582564   -2.811404    2.413966
     35          6           6        4.244494   -2.837203    0.689021
     36          6           6        3.167487   -3.921869    3.005505
     37          6           6        4.827792   -3.948323    1.278980
     38          1           6        4.680163   -2.397904   -0.195999
     39          1           6        5.714039   -4.384214    0.831877
     40          1           6        4.758382   -5.363629    2.897947
     41          1           6        2.750296   -4.326813    3.920665
     42          1           6        1.721942   -2.351281    2.886681
     43          6           6       -6.043041   -1.248021    0.112161
     44          6           6       -7.428855   -1.263150    0.110716
     45          6           6       -7.455655    1.115802   -0.221614
     46          6           6       -8.138825   -0.081853   -0.057816
     47          6           6       -6.069877    1.133238   -0.213610
     48          1           6       -5.546185    2.069596   -0.364205
     49          1           6       -9.221813   -0.094563   -0.061479
     50          1           6       -7.956109   -2.199256    0.247661
     51          1           6       -8.003794    2.039271   -0.362265
     52          1           6       -5.498365   -2.171781    0.266141
     53          6           6       -0.098609   -1.777620   -2.363148
     54          6           6       -1.276769   -3.430280   -1.067199
     55          6           6       -0.629928   -4.440342   -1.766020
     56          6           6        0.275235   -4.120396   -2.765696
     57          6           6        0.533315   -2.787548   -3.066052
     58          1           6       -1.971075   -3.681440   -0.273613
     59          1           6       -0.826874   -5.476201   -1.519095
     60          1           6        0.787831   -4.906679   -3.306009
     61          1           6        1.243268   -2.532414   -3.842699
     62          1           6        0.132879   -0.743225   -2.580014
     63          6           6       -0.165428    1.839233    2.302109
     64          6           6       -1.343719    3.428845    0.930451
     65          6           6       -0.716481    4.471825    1.599249
     66          6           6        0.448827    2.881353    2.973124
     67          6           6        0.181008    4.199480    2.619713
     68          1           6       -2.030013    3.642274    0.119107
     69          1           6       -0.923167    5.495526    1.312376
     70          1           6        0.680425    5.010540    3.135167
     71          1           6        1.154458    2.663194    3.764725
     72          1           6        0.075804    0.816238    2.558326
     73          1           0        2.932012    1.955675   -0.949244
     74          1           0        2.909853   -1.939710    1.060087
     75          1           0       -4.938958   -0.044473   -0.046871
     76          1           0       -1.213147   -1.803548   -1.153017
     77          1           0       -1.262118    1.807941    1.073783
 ---------------------------------------------------------------------

 SCF Done:  E(RCAM-B3LYP) =  -555.206756751     A.U. after   19 cycles

 Excitation energies and oscillator strengths:

 Excited state symmetry could not be determined.
 Excited State   1:      Singlet-?Sym    2.3200 eV  534.40 nm  f=0.2047  <S**2>=0.000
      45 -> 46         0.69893
 This state for optimization and/or second-order correction.
 Total Energy, E(TD-HF/TD-DFT) =  -555.121496622
 Copying the excited state density for this state as the 1-particle RhoCI density.

 Excited state symmetry could not be determined.
 Excited State   2:      Singlet-?Sym    3.1612 eV  392.21 nm  f=0.0063  <S**2>=0.000
      45 -> 47         0.24455
      45 -> 49         0.64991

 Excited state symmetry could not be determined.
 Excited State   3:      Singlet-?Sym    3.5648 eV  347.80 nm  f=0.0011  <S**2>=0.000
      45 -> 47         0.57634
      45 -> 49        -0.23519
      45 -> 50        -0.27862
      45 -> 52        -0.14871

 Excited state symmetry could not be determined.
 Excited State   4:      Singlet-?Sym    3.8602 eV  321.19 nm  f=0.0011  <S**2>=0.000
      44 -> 46         0.67776
      44 -> 60         0.13880

 Excited state symmetry could not be determined.
 Excited State   5:      Singlet-?Sym    3.9137 eV  316.80 nm  f=0.0108  <S**2>=0.000
      45 -> 48         0.63613
      45 -> 50         0.11612
      45 -> 51        -0.23552

 Excited state symmetry could not be determined.
 Excited State   6:      Singlet-?Sym    4.0301 eV  307.65 nm  f=0.0050  <S**2>=0.000
      45 -> 47         0.30008
      45 -> 48        -0.14689
      45 -> 50         0.46239
      45 -> 52         0.29785
      45 -> 54         0.12079
      45 -> 56        -0.14950
      45 -> 57        -0.13073

 Excited state symmetry could not be determined.
 Excited State   7:      Singlet-?Sym    4.1649 eV  297.69 nm  f=0.0007  <S**2>=0.000
      45 -> 48         0.23450
      45 -> 51         0.63366
      45 -> 55        -0.13427

 Excited state symmetry could not be determined.
 Excited State   8:      Singlet-?Sym    4.2727 eV  290.18 nm  f=0.0461  <S**2>=0.000
      43 -> 46         0.13976
      45 -> 50         0.15545
      45 -> 54         0.28828
      45 -> 55         0.11268
      45 -> 56         0.36422
      45 -> 57         0.36307
      45 -> 58        -0.13640
      45 -> 59         0.16045

 Excited state symmetry could not be determined.
 Excited State   9:      Singlet-?Sym    4.3963 eV  282.02 nm  f=0.0059  <S**2>=0.000
      43 -> 46         0.68775

 Excited state symmetry could not be determined.
 Excited State  10:      Singlet-?Sym    4.5891 eV  270.17 nm  f=0.0072  <S**2>=0.000
      45 -> 50        -0.13390
      45 -> 52        -0.14971
      45 -> 54         0.57674
      45 -> 56        -0.22758
      45 -> 57        -0.11366

 Excited state symmetry could not be determined.
 Excited State  11:      Singlet-?Sym    4.6569 eV  266.24 nm  f=0.0067  <S**2>=0.000
      45 -> 48         0.10527
      45 -> 53         0.64245
      45 -> 58        -0.13579
      45 -> 60         0.12724

 Excited state symmetry could not be determined.
 Excited State  12:      Singlet-?Sym    4.7713 eV  259.86 nm  f=0.0003  <S**2>=0.000
      45 -> 50        -0.36249
      45 -> 52         0.57906
      45 -> 59         0.10829

 Excited state symmetry could not be determined.
 Excited State  13:      Singlet-?Sym    4.9305 eV  251.46 nm  f=0.0018  <S**2>=0.000
      44 -> 47         0.32015
      44 -> 49         0.42532
      44 -> 50        -0.15989
      44 -> 55         0.10229
      44 -> 56         0.26345
      44 -> 57         0.25435
      44 -> 58        -0.10086
      44 -> 59         0.10975

 Excited state symmetry could not be determined.
 Excited State  14:      Singlet-?Sym    5.0757 eV  244.27 nm  f=0.0699  <S**2>=0.000
      45 -> 51         0.11770
      45 -> 53        -0.11109
      45 -> 55         0.56023
      45 -> 56        -0.14754
      45 -> 60         0.28504

 Excited state symmetry could not be determined.
 Excited State  15:      Singlet-?Sym    5.1901 eV  238.89 nm  f=0.0036  <S**2>=0.000
      44 -> 47         0.33577
      44 -> 49        -0.25575
      44 -> 50        -0.20369
      44 -> 54        -0.18711
      45 -> 56        -0.27539
      45 -> 57         0.20571
      45 -> 58        -0.12674
      45 -> 59         0.13001

 Excited state symmetry could not be determined.
 Excited State  16:      Singlet-?Sym    5.1974 eV  238.55 nm  f=0.0028  <S**2>=0.000
      44 -> 47         0.33613
      44 -> 49        -0.17550
      44 -> 50        -0.15774
      44 -> 54        -0.11645
      45 -> 54         0.10518
      45 -> 56         0.32509
      45 -> 57        -0.27852
      45 -> 58         0.11149
      45 -> 59        -0.17367
      45 -> 62         0.10578
      45 -> 64         0.10288

 Excited state symmetry could not be determined.
 Excited State  17:      Singlet-?Sym    5.2751 eV  235.04 nm  f=0.1259  <S**2>=0.000
      43 -> 49        -0.10908
      44 -> 49         0.13378
      45 -> 53        -0.14362
      45 -> 55        -0.27286
      45 -> 56         0.10909
      45 -> 58        -0.29232
      45 -> 60         0.38777
      45 -> 61        -0.10381
      45 -> 62         0.18009
      45 -> 64        -0.11311
      45 -> 66        -0.10011

 Excited state symmetry could not be determined.
 Excited State  18:      Singlet-?Sym    5.3348 eV  232.40 nm  f=0.0054  <S**2>=0.000
      44 -> 46        -0.13670
      44 -> 47        -0.20877
      44 -> 48        -0.23529
      44 -> 49        -0.21111
      44 -> 50        -0.14646
      44 -> 52        -0.11881
      44 -> 53         0.14047
      44 -> 55         0.13286
      44 -> 56         0.13560
      44 -> 57         0.15282
      44 -> 58        -0.18156
      44 -> 60         0.30910
      44 -> 61        -0.15975
      44 -> 62         0.13091
      44 -> 64        -0.10387

 Excited state symmetry could not be determined.
 Excited State  19:      Singlet-?Sym    5.3530 eV  231.62 nm  f=0.0154  <S**2>=0.000
      44 -> 47         0.30320
      44 -> 50         0.18118
      44 -> 52         0.12607
      44 -> 54         0.43093
      44 -> 56        -0.15847
      44 -> 57        -0.13189
      44 -> 58        -0.10435
      44 -> 60         0.22788

 Excited state symmetry could not be determined.
 Excited State  20:      Singlet-?Sym    5.3794 eV  230.48 nm  f=0.0070  <S**2>=0.000
      44 -> 48        -0.19897
      44 -> 49         0.37099
      44 -> 53         0.12701
      44 -> 54        -0.27579
      44 -> 56        -0.20989
      44 -> 57        -0.24403
      44 -> 59        -0.16935
      44 -> 60         0.19561

 Excited state symmetry could not be determined.
 Excited State  21:      Singlet-?Sym    5.4311 eV  228.29 nm  f=0.0801  <S**2>=0.000
      38 -> 49        -0.10380
      40 -> 49         0.13123
      41 -> 46         0.64095
      42 -> 49         0.13259

 Excited state symmetry could not be determined.
 Excited State  22:      Singlet-?Sym    5.5169 eV  224.74 nm  f=0.0020  <S**2>=0.000
      44 -> 48         0.56057
      44 -> 51        -0.26879
      44 -> 55         0.10504
      44 -> 60         0.21459

 Excited state symmetry could not be determined.
 Excited State  23:      Singlet-?Sym    5.5481 eV  223.47 nm  f=0.0246  <S**2>=0.000
      43 -> 47         0.19074
      43 -> 49         0.46591
      45 -> 57        -0.19800
      45 -> 58        -0.17215
      45 -> 59         0.34407

 Excited state symmetry could not be determined.
 Excited State  24:      Singlet-?Sym    5.5675 eV  222.69 nm  f=0.0608  <S**2>=0.000
      43 -> 47         0.16995
      43 -> 49         0.43270
      45 -> 57         0.18937
      45 -> 59        -0.39972
      45 -> 61        -0.11571
      45 -> 64        -0.10435

 Excited state symmetry could not be determined.
 Excited State  25:      Singlet-?Sym    5.7427 eV  215.90 nm  f=0.0052  <S**2>=0.000
      44 -> 48         0.27066
      44 -> 50        -0.11060
      44 -> 51         0.58317
      44 -> 55        -0.17084

 Excited state symmetry could not be determined.
 Excited State  26:      Singlet-?Sym    5.7614 eV  215.20 nm  f=0.0065  <S**2>=0.000
      45 -> 55        -0.13083
      45 -> 58         0.49263
      45 -> 59         0.26527
      45 -> 60         0.23178

 Excited state symmetry could not be determined.
 Excited State  27:      Singlet-?Sym    5.8104 eV  213.38 nm  f=0.0128  <S**2>=0.000
      43 -> 47         0.10921
      44 -> 47         0.15967
      44 -> 49        -0.10399
      44 -> 50         0.43530
      44 -> 51         0.14189
      44 -> 52         0.22744
      44 -> 54        -0.23262
      44 -> 56         0.18548
      44 -> 57         0.13449
      44 -> 61        -0.11716

 Excited state symmetry could not be determined.
 Excited State  28:      Singlet-?Sym    5.8303 eV  212.65 nm  f=0.0048  <S**2>=0.000
      43 -> 47         0.47789
      43 -> 49        -0.21507
      43 -> 50        -0.33311
      43 -> 52        -0.18938
      44 -> 50        -0.12183

 Excited state symmetry could not be determined.
 Excited State  29:      Singlet-?Sym    5.9014 eV  210.09 nm  f=0.0130  <S**2>=0.000
      45 -> 57         0.27246
      45 -> 60         0.15730
      45 -> 61         0.47053
      45 -> 62         0.24715
      45 -> 64         0.23002

 Excited state symmetry could not be determined.
 Excited State  30:      Singlet-?Sym    6.0063 eV  206.42 nm  f=0.0398  <S**2>=0.000
      41 -> 49        -0.12049
      42 -> 46         0.47847
      45 -> 60         0.10544
      45 -> 62        -0.20941
      45 -> 63        -0.18732
      45 -> 65        -0.20895
      45 -> 66        -0.10514
      45 -> 67        -0.12468
      45 -> 69         0.14056

 Excited state symmetry could not be determined.
 Excited State  31:      Singlet-?Sym    6.0992 eV  203.28 nm  f=0.0028  <S**2>=0.000
      41 -> 49        -0.15213
      42 -> 46         0.37092
      45 -> 60        -0.12725
      45 -> 62         0.31534
      45 -> 63         0.22721
      45 -> 65         0.13773
      45 -> 67         0.15245
      45 -> 68        -0.14068
      45 -> 69        -0.10479

 Excited state symmetry could not be determined.
 Excited State  32:      Singlet-?Sym    6.1585 eV  201.32 nm  f=0.0066  <S**2>=0.000
      43 -> 48         0.41734
      43 -> 51        -0.37773
      45 -> 61         0.10288
      45 -> 64        -0.13901
      45 -> 65         0.19021
      45 -> 69        -0.11668

 Excited state symmetry could not be determined.
 Excited State  33:      Singlet-?Sym    6.1780 eV  200.69 nm  f=0.0032  <S**2>=0.000
      44 -> 53         0.58511
      44 -> 55        -0.13634
      44 -> 58        -0.13581
      44 -> 60        -0.11806
      44 -> 62        -0.12522

 Excited state symmetry could not be determined.
 Excited State  34:      Singlet-?Sym    6.2056 eV  199.80 nm  f=0.0055  <S**2>=0.000
      43 -> 48         0.29151
      43 -> 51        -0.15907
      45 -> 56        -0.10796
      45 -> 61        -0.25760
      45 -> 62         0.15780
      45 -> 64         0.25654
      45 -> 65        -0.28714
      45 -> 67        -0.11571
      45 -> 68        -0.12514
      45 -> 69         0.15093
      45 -> 73        -0.12071

 Excited state symmetry could not be determined.
 Excited State  35:      Singlet-?Sym    6.3123 eV  196.42 nm  f=0.0090  <S**2>=0.000
      43 -> 47        -0.26195
      43 -> 50        -0.26361
      43 -> 52        -0.19638
      44 -> 50        -0.25286
      44 -> 52         0.44896

 Excited state symmetry could not be determined.
 Excited State  36:      Singlet-?Sym    6.3147 eV  196.34 nm  f=0.0114  <S**2>=0.000
      43 -> 47         0.29115
      43 -> 50         0.29821
      43 -> 51         0.13044
      43 -> 52         0.21162
      44 -> 50        -0.21149
      44 -> 52         0.40262

 Excited state symmetry could not be determined.
 Excited State  37:      Singlet-?Sym    6.3916 eV  193.98 nm  f=0.0238  <S**2>=0.000
      43 -> 48         0.42993
      43 -> 51         0.47777
      43 -> 53        -0.12712
      43 -> 55        -0.13134
      45 -> 61         0.10181

 Excited state symmetry could not be determined.
 Excited State  38:      Singlet-?Sym    6.4415 eV  192.48 nm  f=0.0170  <S**2>=0.000
      40 -> 46         0.15065
      41 -> 49        -0.11315
      44 -> 51         0.13700
      44 -> 53         0.14324
      44 -> 55         0.37648
      44 -> 56        -0.12279
      44 -> 58         0.19827
      44 -> 59         0.11222
      44 -> 62        -0.12126
      45 -> 60         0.15022
      45 -> 62        -0.11651
      45 -> 64         0.14400
      45 -> 66         0.24419

 Excited state symmetry could not be determined.
 Excited State  39:      Singlet-?Sym    6.4704 eV  191.62 nm  f=0.0006  <S**2>=0.000
      44 -> 51        -0.11166
      44 -> 55        -0.29528
      44 -> 58        -0.15134
      45 -> 60         0.15995
      45 -> 62        -0.20265
      45 -> 64         0.23723
      45 -> 66         0.33957
      45 -> 69        -0.10068

 Excited state symmetry could not be determined.
 Excited State  40:      Singlet-?Sym    6.5162 eV  190.27 nm  f=0.0084  <S**2>=0.000
      45 -> 59         0.10411
      45 -> 61         0.20485
      45 -> 62        -0.13836
      45 -> 63         0.38348
      45 -> 64        -0.13635
      45 -> 65        -0.13925
      45 -> 68        -0.20348
      45 -> 69         0.31516
      45 -> 71        -0.17215
      45 -> 73         0.14133

 Excited state symmetry could not be determined.
 Excited State  41:      Singlet-?Sym    6.5402 eV  189.57 nm  f=0.0153  <S**2>=0.000
      37 -> 46         0.17251
      38 -> 46        -0.12482
      40 -> 46         0.38329
      41 -> 47        -0.16260
      41 -> 49        -0.35756
      42 -> 46        -0.21626
      45 -> 64        -0.11321
      45 -> 69         0.12174

 Excited state symmetry could not be determined.
 Excited State  42:      Singlet-?Sym    6.7178 eV  184.56 nm  f=0.0570  <S**2>=0.000
      43 -> 48         0.12560
      43 -> 53         0.28011
      43 -> 60         0.20668
      45 -> 57        -0.10008
      45 -> 61        -0.12849
      45 -> 66         0.13427
      45 -> 67         0.14855
      45 -> 68         0.34721
      45 -> 69         0.10872
      45 -> 71        -0.12419
      45 -> 73         0.18795
      45 -> 75         0.10238
      45 -> 76        -0.10949

 Excited state symmetry could not be determined.
 Excited State  43:      Singlet-?Sym    6.8021 eV  182.27 nm  f=0.0020  <S**2>=0.000
      44 -> 54         0.16909
      44 -> 55         0.13365
      44 -> 56         0.40384
      44 -> 57        -0.35819
      44 -> 58         0.11623
      44 -> 59        -0.11771
      44 -> 62         0.18713
      44 -> 64         0.17513
      44 -> 65        -0.10487

 Excited state symmetry could not be determined.
 Excited State  44:      Singlet-?Sym    6.8084 eV  182.10 nm  f=0.0193  <S**2>=0.000
      43 -> 53        -0.19544
      43 -> 60        -0.13563
      45 -> 63         0.14521
      45 -> 65        -0.19815
      45 -> 67         0.35716
      45 -> 68         0.23443
      45 -> 71         0.33089

 Excited state symmetry could not be determined.
 Excited State  45:      Singlet-?Sym    6.8252 eV  181.66 nm  f=0.5046  <S**2>=0.000
      40 -> 46        -0.22725
      41 -> 47        -0.20900
      43 -> 54         0.31248
      43 -> 55         0.11876
      43 -> 56         0.27697
      43 -> 57         0.25981
      45 -> 71        -0.12821
      45 -> 72        -0.10911

 Excited state symmetry could not be determined.
 Excited State  46:      Singlet-?Sym    6.8711 eV  180.44 nm  f=0.0372  <S**2>=0.000
      40 -> 46         0.14150
      41 -> 47         0.35598
      43 -> 54         0.18655
      43 -> 56         0.13461
      43 -> 57         0.12539
      45 -> 64         0.15621
      45 -> 65         0.13481
      45 -> 66        -0.25856
      45 -> 70         0.19472
      45 -> 72         0.21088

 Excited state symmetry could not be determined.
 Excited State  47:      Singlet-?Sym    6.8783 eV  180.25 nm  f=0.0209  <S**2>=0.000
      41 -> 47        -0.21273
      43 -> 53         0.32393
      43 -> 60         0.13012
      45 -> 62        -0.17031
      45 -> 66        -0.26058
      45 -> 67         0.19003
      45 -> 68        -0.13823
      45 -> 69        -0.17950
      45 -> 71         0.17003
      45 -> 73        -0.16654
      45 -> 74         0.10176

 Excited state symmetry could not be determined.
 Excited State  48:      Singlet-?Sym    6.8980 eV  179.74 nm  f=0.0185  <S**2>=0.000
      41 -> 47         0.39804
      43 -> 53         0.17592
      43 -> 54         0.11780
      45 -> 64        -0.19270
      45 -> 65        -0.14268
      45 -> 66         0.13208
      45 -> 68        -0.10346
      45 -> 69        -0.11045
      45 -> 70        -0.19337
      45 -> 71         0.14401
      45 -> 72        -0.21023

 Excited state symmetry could not be determined.
 Excited State  49:      Singlet-?Sym    6.9207 eV  179.15 nm  f=0.0106  <S**2>=0.000
      44 -> 50         0.11959
      44 -> 54        -0.24191
      44 -> 57        -0.17794
      44 -> 58        -0.20986
      44 -> 59         0.43194
      44 -> 61         0.11760
      44 -> 63        -0.15921
      44 -> 67        -0.19692
      44 -> 69        -0.13001
      44 -> 73        -0.13170

 Excited state symmetry could not be determined.
 Excited State  50:      Singlet-?Sym    6.9397 eV  178.66 nm  f=0.0143  <S**2>=0.000
      40 -> 46         0.12234
      43 -> 53        -0.14747
      45 -> 63        -0.26425
      45 -> 65        -0.18739
      45 -> 67         0.32950
      45 -> 68        -0.16336
      45 -> 71        -0.29230
      45 -> 73         0.13445
      45 -> 74         0.13915
      45 -> 76         0.13110

 Excited state symmetry could not be determined.
 Excited State  51:      Singlet-?Sym    7.0099 eV  176.87 nm  f=0.2242  <S**2>=0.000
      40 -> 46         0.20150
      41 -> 47        -0.12635
      41 -> 49         0.22527
      43 -> 52        -0.25079
      43 -> 54         0.39927
      43 -> 55        -0.11031
      43 -> 56        -0.26607

 Excited state symmetry could not be determined.
 Excited State  52:      Singlet-?Sym    7.0300 eV  176.36 nm  f=0.0046  <S**2>=0.000
      42 -> 49        -0.10361
      45 -> 63        -0.28332
      45 -> 65         0.21218
      45 -> 66         0.13872
      45 -> 67         0.17026
      45 -> 68        -0.22059
      45 -> 69         0.37081
      45 -> 70         0.12295
      45 -> 71         0.20315

 Excited state symmetry could not be determined.
 Excited State  53:      Singlet-?Sym    7.0671 eV  175.44 nm  f=0.0857  <S**2>=0.000
      40 -> 46         0.24677
      41 -> 49         0.23915
      43 -> 54        -0.10930
      43 -> 55         0.11835
      43 -> 56         0.17221
      45 -> 62         0.10357
      45 -> 64        -0.22294
      45 -> 65        -0.13135
      45 -> 66         0.10363
      45 -> 67        -0.10262
      45 -> 70         0.21089
      45 -> 72         0.16145
      45 -> 74        -0.19071
      45 -> 75         0.15114
      45 -> 76         0.12091

 Excited state symmetry could not be determined.
 Excited State  54:      Singlet-?Sym    7.0826 eV  175.05 nm  f=0.0998  <S**2>=0.000
      40 -> 49         0.11484
      41 -> 46        -0.16841
      41 -> 48        -0.11588
      42 -> 47         0.22338
      42 -> 49         0.47346
      43 -> 53         0.17342
      43 -> 60        -0.10915

 Excited state symmetry could not be determined.
 Excited State  55:      Singlet-?Sym    7.0974 eV  174.69 nm  f=0.0029  <S**2>=0.000
      44 -> 53        -0.21382
      44 -> 58        -0.23260
      44 -> 59        -0.20575
      44 -> 62        -0.14048
      44 -> 63        -0.13431
      44 -> 65        -0.21079
      44 -> 67        -0.22069
      44 -> 68         0.11683
      44 -> 69         0.25866
      45 -> 70        -0.12015

 Excited state symmetry could not be determined.
 Excited State  56:      Singlet-?Sym    7.1073 eV  174.45 nm  f=0.0131  <S**2>=0.000
      38 -> 46         0.11433
      40 -> 46         0.21063
      41 -> 49         0.22325
      43 -> 56         0.18297
      44 -> 59         0.10147
      44 -> 69        -0.11945
      45 -> 64         0.11969
      45 -> 65         0.20182
      45 -> 69         0.11507
      45 -> 70        -0.19317
      45 -> 72        -0.21806
      45 -> 75        -0.10540

 Excited state symmetry could not be determined.
 Excited State  57:      Singlet-?Sym    7.1265 eV  173.98 nm  f=0.0081  <S**2>=0.000
      43 -> 50        -0.37544
      43 -> 52         0.48095
      43 -> 54         0.25747

 Excited state symmetry could not be determined.
 Excited State  58:      Singlet-?Sym    7.1661 eV  173.01 nm  f=0.0075  <S**2>=0.000
      33 -> 46        -0.23629
      36 -> 46         0.44141
      38 -> 46         0.16870
      39 -> 46        -0.20102
      43 -> 53        -0.18275
      43 -> 60         0.15606
      45 -> 73        -0.11328
      45 -> 76        -0.10166

 Excited state symmetry could not be determined.
 Excited State  59:      Singlet-?Sym    7.2034 eV  172.12 nm  f=0.0472  <S**2>=0.000

 Alpha  occ. eigenvalues --  -18.99187 -14.40653 -10.22239 -10.21790 -10.19388
 Alpha  occ. eigenvalues --  -10.19080 -10.18892 -10.16530 -10.15493 -10.13275
 Alpha  occ. eigenvalues --  -10.13192 -10.10096 -10.09923  -1.01414  -0.93651
 Alpha  occ. eigenvalues --   -0.85083  -0.79681  -0.79120  -0.70927  -0.69419
 Alpha  occ. eigenvalues --   -0.65531  -0.63536  -0.56445  -0.56114  -0.52065
 Alpha  occ. eigenvalues --   -0.50269  -0.48070  -0.46382  -0.44594  -0.43096
 Alpha  occ. eigenvalues --   -0.40339  -0.39314  -0.37685  -0.37009  -0.36148
 Alpha  occ. eigenvalues --   -0.34951  -0.33135  -0.30957  -0.30801  -0.28667
 Alpha  occ. eigenvalues --   -0.26177  -0.25558  -0.19238  -0.15427  -0.10595
 Alpha virt. eigenvalues --    0.05377   0.07607   0.08604   0.09074   0.10596
 Alpha virt. eigenvalues --    0.11247   0.11690   0.13163   0.13721   0.14711
 Alpha virt. eigenvalues --    0.14998   0.16182   0.16606   0.16679   0.17860

 Mulliken charges:
               1
     1  C    0.071362
     2  C   -0.109330
     3  C   -0.454082
     4  C   -0.126740
     5  C    0.261344
     6  C   -0.704892
     7  N    0.323609
     8  C   -0.386768
     9  C   -0.390445
    10  O   -0.495746
    11  C    0.095568
    12  C    0.109613
    13  H    0.139547
    14  H    0.128884
    15  H    0.188963
    16  H    0.189871
    17  C   -0.744261
    18  C    0.000000
    19  C    0.000000
    20  C    0.000000
    21  C    0.000000
    22  C    0.000000
    23  C    0.018514
    24  C    0.032827
    25  C   -0.029233
    26  C   -0.314460
    27  C   -0.341861
    28  H    0.087752
    29  H    0.148308
    30  H    0.094212
    31  H    0.126929
    32  H    0.153562
    33  C   -0.057527
    34  C   -0.015558
    35  C   -0.074697
    36  C   -0.284930
    37  C   -0.217952
    38  H    0.128777
    39  H    0.132262
    40  H    0.106875
    41  H    0.146395
    42  H    0.062678
    43  C   -0.372696
    44  C    0.180859
    45  C    0.179380
    46  C   -0.377284
    47  C   -0.370032
    48  H    0.163034
    49  H    0.170619
    50  H    0.064963
    51  H    0.065448
    52  H    0.168440
    53  C   -0.462833
    54  C   -0.371117
    55  C    0.236970
    56  C   -0.474622
    57  C    0.274567
    58  H    0.129277
    59  H    0.054896
    60  H    0.188395
    61  H    0.059297
    62  H    0.154787
    63  C   -0.586365
    64  C   -0.533780
    65  C    0.413599
    66  C    0.474943
    67  C   -0.656015
    68  H    0.165903
    69  H    0.024361
    70  H    0.221884
    71  H    0.026011
    72  H    0.154755
    73  H    0.226598
    74  H    0.259295
    75  H    0.437623
    76  H    0.458750
    77  H    0.521236
 Sum of Mulliken charges =  -0.72948

 Dipole moment (field-independent basis, Debye):
    X=            -13.8121    Y=              0.0299    Z=             -0.6332  Tot=             13.8266
 Quadrupole moment (field-independent basis, Debye-Ang):
   XX=            -98.6410   YY=            -46.9167   ZZ=            -66.0229
   XY=             -0.7838   XZ=             -4.8283   YZ=              7.0228

 Normal termination of Gaussian DV at Sun Nov 25 20:20:11 2018.
