 -----------------------------------------
 #p TD(nstates=100) B3LYP/6-31+G(d) nosymm
 -----------------------------------------

 ---
 RL0
 ---
 Symbolic Z-matrix:
 Charge =  0 Multiplicity = 1

                          Input orientation:
 ---------------------------------------------------------------------
 Center     Atomic      Atomic             Coordinates (Angstroms)
 Number     Number       Type             X           Y           Z
 ---------------------------------------------------------------------
      1          6           0        1.044523   -1.074059    0.570119
      2          6           0        2.417721   -1.111219    0.591537
      3          6           0        3.199849   -0.034980   -0.024347
      4          6           0        2.431809    1.094935   -0.554247
      5          6           0        1.058738    1.070420   -0.543826
      6          6           0        0.357909   -0.001139    0.004987
      7          7           0       -1.077959   -0.006115   -0.023751
      8          6           0       -1.776555    1.020310    0.556382
      9          6           0       -1.748475   -1.038869   -0.623940
     10          8           0        4.438780   -0.068943   -0.077215
     11          6           0       -3.155648    1.020414    0.521477
     12          6           0       -3.128675   -1.066624   -0.604653
     13          1           0        0.483580   -1.903420    0.986365
     14          1           0        0.509554    1.891467   -0.990730
     15          1           0       -3.620252   -1.881401   -1.116872
     16          1           0       -3.669280    1.829626    1.020788
     17          6           0       -3.871093   -0.032465   -0.042969
     18          6           0        2.610167    3.562233   -0.853906
     19          6           0        4.342392    4.571887   -2.181607
     20          6           0        4.278511    2.179010   -1.879620
     21          6           0        4.873757    3.310037   -2.417903
     22          6           0        3.207911    4.693222   -1.391178
     23          1           0        4.816061    5.452818   -2.599018
     24          1           0        2.794060    5.672782   -1.179104
     25          1           0        1.745455    3.673394   -0.208857
     26          1           0        4.711637    1.203262   -2.043196
     27          1           0        5.766703    3.204695   -3.023551
     28          6           0        4.293686   -4.499925    2.436812
     29          6           0        2.582564   -2.811404    2.413966
     30          6           0        4.244494   -2.837203    0.689021
     31          6           0        3.167487   -3.921869    3.005505
     32          6           0        4.827792   -3.948323    1.278980
     33          1           0        4.680163   -2.397904   -0.195999
     34          1           0        5.714039   -4.384214    0.831877
     35          1           0        4.758382   -5.363629    2.897947
     36          1           0        2.750296   -4.326813    3.920665
     37          1           0        1.721942   -2.351281    2.886681
     38          6           0       -6.043041   -1.248021    0.112161
     39          6           0       -7.428855   -1.263150    0.110716
     40          6           0       -7.455655    1.115802   -0.221614
     41          6           0       -8.138825   -0.081853   -0.057816
     42          6           0       -6.069877    1.133238   -0.213610
     43          1           0       -5.546185    2.069596   -0.364205
     44          1           0       -9.221813   -0.094563   -0.061479
     45          1           0       -7.956109   -2.199256    0.247661
     46          1           0       -8.003794    2.039271   -0.362265
     47          1           0       -5.498365   -2.171781    0.266141
     48          6           0       -0.098609   -1.777620   -2.363148
     49          6           0       -1.276769   -3.430280   -1.067199
     50          6           0       -0.629928   -4.440342   -1.766020
     51          6           0        0.275235   -4.120396   -2.765696
     52          6           0        0.533315   -2.787548   -3.066052
     53          1           0       -1.971075   -3.681440   -0.273613
     54          1           0       -0.826874   -5.476201   -1.519095
     55          1           0        0.787831   -4.906679   -3.306009
     56          1           0        1.243268   -2.532414   -3.842699
     57          1           0        0.132879   -0.743225   -2.580014
     58          6           0       -0.165428    1.839233    2.302109
     59          6           0       -1.343719    3.428845    0.930451
     60          6           0       -0.716481    4.471825    1.599249
     61          6           0        0.448827    2.881353    2.973124
     62          6           0        0.181008    4.199480    2.619713
     63          1           0       -2.030013    3.642274    0.119107
     64          1           0       -0.923167    5.495526    1.312376
     65          1           0        0.680425    5.010540    3.135167
     66          1           0        1.154458    2.663194    3.764725
     67          1           0        0.075804    0.816238    2.558326
     68          6           0        3.122807    2.283991   -1.099910
     69          6           0        3.097570   -2.255725    1.238809
     70          6           0       -5.346278   -0.049054   -0.048360
     71          6           0       -1.008956   -2.095223   -1.354825
     72          6           0       -1.065895    2.108372    1.271139
 ---------------------------------------------------------------------

 SCF Done:  E(RB3LYP) =  -1709.83199936     A.U. after   22 cycles

 Excitation energies and oscillator strengths:

 Excited state symmetry could not be determined.
 Excited State   1:      Singlet-?Sym    1.4308 eV  866.52 nm  f=0.2595  <S**2>=0.000
     145 ->146         0.71321
     145 <-146        -0.12260
 This state for optimization and/or second-order correction.
 Total Energy, E(TD-HF/TD-DFT) =  -1709.77941740
 Copying the excited state density for this state as the 1-particle RhoCI density.

 Excited state symmetry could not be determined.
 Excited State   2:      Singlet-?Sym    1.8894 eV  656.22 nm  f=0.0193  <S**2>=0.000
     145 ->147         0.70435

 Excited state symmetry could not be determined.
 Excited State   3:      Singlet-?Sym    2.0024 eV  619.18 nm  f=0.0009  <S**2>=0.000
     144 ->146         0.70329

 Excited state symmetry could not be determined.
 Excited State   4:      Singlet-?Sym    2.3160 eV  535.35 nm  f=0.0158  <S**2>=0.000
     143 ->146         0.70224

 Excited state symmetry could not be determined.
 Excited State   5:      Singlet-?Sym    2.8432 eV  436.08 nm  f=0.0188  <S**2>=0.000
     145 ->148         0.69451

 Excited state symmetry could not be determined.
 Excited State   6:      Singlet-?Sym    2.9406 eV  421.62 nm  f=0.0236  <S**2>=0.000
     145 ->149         0.53757
     145 ->150        -0.45269

 Excited state symmetry could not be determined.
 Excited State   7:      Singlet-?Sym    2.9763 eV  416.58 nm  f=0.0004  <S**2>=0.000
     144 ->147         0.70429

 Excited state symmetry could not be determined.
 Excited State   8:      Singlet-?Sym    3.0069 eV  412.33 nm  f=0.0471  <S**2>=0.000
     145 ->149         0.45419
     145 ->150         0.53563

 Excited state symmetry could not be determined.
 Excited State   9:      Singlet-?Sym    3.0626 eV  404.83 nm  f=0.0001  <S**2>=0.000
     142 ->146         0.70372

 Excited state symmetry could not be determined.
 Excited State  10:      Singlet-?Sym    3.0936 eV  400.77 nm  f=0.0005  <S**2>=0.000
     141 ->146         0.70467

 Excited state symmetry could not be determined.
 Excited State  11:      Singlet-?Sym    3.1490 eV  393.72 nm  f=0.0047  <S**2>=0.000
     140 ->146        -0.35030
     143 ->147        -0.16130
     145 ->151         0.57809

 Excited state symmetry could not be determined.
 Excited State  12:      Singlet-?Sym    3.1820 eV  389.65 nm  f=0.0119  <S**2>=0.000
     140 ->146         0.53787
     143 ->147         0.19961
     145 ->151         0.39258

 Excited state symmetry could not be determined.
 Excited State  13:      Singlet-?Sym    3.1973 eV  387.78 nm  f=0.0014  <S**2>=0.000
     140 ->146        -0.25106
     143 ->147         0.65458

 Excited state symmetry could not be determined.
 Excited State  14:      Singlet-?Sym    3.2380 eV  382.91 nm  f=0.0576  <S**2>=0.000
     140 ->146         0.10608
     145 ->152         0.67106
     145 ->153        -0.15402

 Excited state symmetry could not be determined.
 Excited State  15:      Singlet-?Sym    3.3917 eV  365.55 nm  f=0.0972  <S**2>=0.000
     145 ->152         0.11294
     145 ->153         0.61686
     145 ->155        -0.31460

 Excited state symmetry could not be determined.
 Excited State  16:      Singlet-?Sym    3.5618 eV  348.10 nm  f=0.0318  <S**2>=0.000
     145 ->152         0.13375
     145 ->153         0.26902
     145 ->154        -0.17633
     145 ->155         0.59211
     145 ->157        -0.13848

 Excited state symmetry could not be determined.
 Excited State  17:      Singlet-?Sym    3.5764 eV  346.67 nm  f=0.0061  <S**2>=0.000
     138 ->146         0.11590
     145 ->154         0.65535
     145 ->155         0.15140

 Excited state symmetry could not be determined.
 Excited State  18:      Singlet-?Sym    3.7175 eV  333.52 nm  f=0.0847  <S**2>=0.000
     139 ->146         0.68965

 Excited state symmetry could not be determined.
 Excited State  19:      Singlet-?Sym    3.8299 eV  323.72 nm  f=0.0023  <S**2>=0.000
     145 ->156         0.69669

 Excited state symmetry could not be determined.
 Excited State  20:      Singlet-?Sym    3.8583 eV  321.35 nm  f=0.0005  <S**2>=0.000
     138 ->146         0.25444
     144 ->148        -0.27096
     144 ->149        -0.10398
     144 ->150         0.49112
     144 ->152         0.16918
     144 ->153        -0.20575
     144 ->155         0.16487

 Excited state symmetry could not be determined.
 Excited State  21:      Singlet-?Sym    3.8769 eV  319.80 nm  f=0.0311  <S**2>=0.000
     138 ->146         0.61370
     144 ->148         0.21885
     144 ->150        -0.13789
     145 ->154        -0.10645

 Excited state symmetry could not be determined.
 Excited State  22:      Singlet-?Sym    3.8835 eV  319.26 nm  f=0.0031  <S**2>=0.000
     138 ->146        -0.10486
     144 ->148         0.60216
     144 ->150         0.28195

 Excited state symmetry could not be determined.
 Excited State  23:      Singlet-?Sym    3.9373 eV  314.90 nm  f=0.0028  <S**2>=0.000
     137 ->146        -0.13561
     142 ->147         0.67929

 Excited state symmetry could not be determined.
 Excited State  24:      Singlet-?Sym    3.9516 eV  313.75 nm  f=0.0357  <S**2>=0.000
     137 ->146         0.64971
     142 ->147         0.15289
     145 ->157         0.12088

 Excited state symmetry could not be determined.
 Excited State  25:      Singlet-?Sym    3.9709 eV  312.24 nm  f=0.0046  <S**2>=0.000
     141 ->147         0.52880
     145 ->157         0.41109
     145 ->160        -0.11026

 Excited state symmetry could not be determined.
 Excited State  26:      Singlet-?Sym    3.9747 eV  311.93 nm  f=0.0066  <S**2>=0.000
     141 ->147        -0.45887
     145 ->157         0.48496
     145 ->160        -0.10447

 Excited state symmetry could not be determined.
 Excited State  27:      Singlet-?Sym    4.0178 eV  308.59 nm  f=0.0001  <S**2>=0.000
     144 ->149         0.68609
     144 ->152         0.10872

 Excited state symmetry could not be determined.
 Excited State  28:      Singlet-?Sym    4.0312 eV  307.56 nm  f=0.0149  <S**2>=0.000
     136 ->146         0.19627
     137 ->146         0.10938
     140 ->147         0.64744
     143 ->148        -0.12684

 Excited state symmetry could not be determined.
 Excited State  29:      Singlet-?Sym    4.0481 eV  306.28 nm  f=0.0291  <S**2>=0.000
     136 ->146         0.65381
     140 ->147        -0.20268

 Excited state symmetry could not be determined.
 Excited State  30:      Singlet-?Sym    4.0880 eV  303.29 nm  f=0.0014  <S**2>=0.000
     134 ->146        -0.12788
     135 ->146         0.67447
     143 ->148        -0.12680

 Excited state symmetry could not be determined.
 Excited State  31:      Singlet-?Sym    4.0960 eV  302.69 nm  f=0.0006  <S**2>=0.000
     144 ->150         0.10745
     145 ->157         0.14042
     145 ->158         0.44070
     145 ->159        -0.39921
     145 ->161        -0.24348
     145 ->162         0.13541

 Excited state symmetry could not be determined.
 Excited State  32:      Singlet-?Sym    4.1231 eV  300.71 nm  f=0.0104  <S**2>=0.000
     135 ->146         0.12440
     140 ->147         0.11972
     143 ->148         0.65840

 Excited state symmetry could not be determined.
 Excited State  33:      Singlet-?Sym    4.1384 eV  299.60 nm  f=0.0048  <S**2>=0.000
     145 ->158         0.41976
     145 ->159         0.38505
     145 ->160        -0.25228
     145 ->162        -0.26513

 Excited state symmetry could not be determined.
 Excited State  34:      Singlet-?Sym    4.1445 eV  299.15 nm  f=0.0010  <S**2>=0.000
     144 ->150         0.33743
     144 ->151         0.32020
     144 ->152        -0.30615
     144 ->153         0.30145
     144 ->155        -0.19210
     145 ->160        -0.12705

 Excited state symmetry could not be determined.
 Excited State  35:      Singlet-?Sym    4.1637 eV  297.77 nm  f=0.0000  <S**2>=0.000
     144 ->150        -0.12995
     144 ->151         0.59095
     144 ->152         0.16850
     144 ->153        -0.13394
     145 ->160         0.15438
     145 ->161        -0.10394

 Excited state symmetry could not be determined.
 Excited State  36:      Singlet-?Sym    4.2064 eV  294.75 nm  f=0.0041  <S**2>=0.000
     143 ->149        -0.10528
     143 ->150         0.19830
     144 ->152        -0.11295
     145 ->159         0.26699
     145 ->160         0.43329
     145 ->161        -0.19477
     145 ->163        -0.29594

 Excited state symmetry could not be determined.
 Excited State  37:      Singlet-?Sym    4.2147 eV  294.17 nm  f=0.0603  <S**2>=0.000
     143 ->149        -0.35815
     143 ->150         0.52916
     144 ->152         0.13068
     145 ->163         0.10690

 Excited state symmetry could not be determined.
 Excited State  38:      Singlet-?Sym    4.2291 eV  293.17 nm  f=0.0003  <S**2>=0.000
     145 ->159         0.17793
     145 ->160         0.19140
     145 ->162         0.16811
     145 ->163         0.59859

 Excited state symmetry could not be determined.
 Excited State  39:      Singlet-?Sym    4.2801 eV  289.68 nm  f=0.3065  <S**2>=0.000
     134 ->146         0.46673
     143 ->149         0.45191
     143 ->150         0.20922

 Excited state symmetry could not be determined.
 Excited State  40:      Singlet-?Sym    4.2906 eV  288.97 nm  f=0.1559  <S**2>=0.000
     134 ->146         0.43286
     143 ->149        -0.38133
     143 ->150        -0.31208
     145 ->158         0.11081
     145 ->161         0.14674

 Excited state symmetry could not be determined.
 Excited State  41:      Singlet-?Sym    4.3152 eV  287.32 nm  f=0.0194  <S**2>=0.000
     134 ->146        -0.16929
     145 ->158         0.24399
     145 ->160         0.22755
     145 ->161         0.56043
     145 ->164         0.11456

 Excited state symmetry could not be determined.
 Excited State  42:      Singlet-?Sym    4.3672 eV  283.90 nm  f=0.0001  <S**2>=0.000
     144 ->152         0.52128
     144 ->153         0.30234
     144 ->155        -0.34891

 Excited state symmetry could not be determined.
 Excited State  43:      Singlet-?Sym    4.3755 eV  283.36 nm  f=0.0004  <S**2>=0.000
     133 ->146        -0.22393
     145 ->159         0.16855
     145 ->160        -0.21287
     145 ->161         0.12020
     145 ->162         0.54964
     145 ->163        -0.13469

 Excited state symmetry could not be determined.
 Excited State  44:      Singlet-?Sym    4.3806 eV  283.03 nm  f=0.0084  <S**2>=0.000
     133 ->146         0.65233
     134 ->149         0.12771
     145 ->162         0.18780

 Excited state symmetry could not be determined.
 Excited State  45:      Singlet-?Sym    4.4217 eV  280.40 nm  f=0.0018  <S**2>=0.000
     143 ->151         0.69317

 Excited state symmetry could not be determined.
 Excited State  46:      Singlet-?Sym    4.4555 eV  278.27 nm  f=0.0105  <S**2>=0.000
     145 ->157        -0.10555
     145 ->164         0.66614

 Excited state symmetry could not be determined.
 Excited State  47:      Singlet-?Sym    4.5127 eV  274.75 nm  f=0.0017  <S**2>=0.000
     144 ->154         0.55443
     144 ->158         0.10308
     144 ->159        -0.19029
     144 ->160        -0.23561
     144 ->169        -0.11487

 Excited state symmetry could not be determined.
 Excited State  48:      Singlet-?Sym    4.5255 eV  273.97 nm  f=0.0126  <S**2>=0.000
     139 ->147        -0.10012
     143 ->152         0.65272
     143 ->153        -0.13352
     143 ->155        -0.10644

 Excited state symmetry could not be determined.
 Excited State  49:      Singlet-?Sym    4.5878 eV  270.25 nm  f=0.0010  <S**2>=0.000
     144 ->153         0.44178
     144 ->154         0.14820
     144 ->155         0.49353
     144 ->157        -0.15095

 Excited state symmetry could not be determined.
 Excited State  50:      Singlet-?Sym    4.6089 eV  269.01 nm  f=0.0010  <S**2>=0.000
     145 ->165         0.67933

 Excited state symmetry could not be determined.
 Excited State  51:      Singlet-?Sym    4.6406 eV  267.17 nm  f=0.0408  <S**2>=0.000
     139 ->147         0.65786
     143 ->153        -0.15382

 Excited state symmetry could not be determined.
 Excited State  52:      Singlet-?Sym    4.6458 eV  266.87 nm  f=0.0006  <S**2>=0.000
     143 ->153        -0.14115
     145 ->166         0.61822
     145 ->167         0.22364

 Excited state symmetry could not be determined.
 Excited State  53:      Singlet-?Sym    4.6788 eV  264.99 nm  f=0.0223  <S**2>=0.000
     139 ->147         0.15812
     143 ->152         0.13627
     143 ->153         0.50207
     143 ->155        -0.21624
     145 ->166         0.16803
     145 ->168         0.13281
     145 ->169        -0.20061
     145 ->170        -0.11243

 Excited state symmetry could not be determined.
 Excited State  54:      Singlet-?Sym    4.6906 eV  264.32 nm  f=0.0499  <S**2>=0.000
     138 ->147         0.66843

 Excited state symmetry could not be determined.
 Excited State  55:      Singlet-?Sym    4.7195 eV  262.71 nm  f=0.0067  <S**2>=0.000
     144 ->154         0.34275
     144 ->158        -0.19897
     144 ->159         0.29366
     144 ->160         0.32689
     145 ->167         0.16812
     145 ->168         0.20417

 Excited state symmetry could not be determined.
 Excited State  56:      Singlet-?Sym    4.7208 eV  262.63 nm  f=0.0036  <S**2>=0.000
     143 ->153        -0.10523
     144 ->154        -0.15556
     144 ->159        -0.12895
     144 ->160        -0.14641
     145 ->166        -0.16767
     145 ->167         0.38059
     145 ->168         0.45155

 Excited state symmetry could not be determined.
 Excited State  57:      Singlet-?Sym    4.7706 eV  259.89 nm  f=0.0031  <S**2>=0.000
     145 ->165         0.12618
     145 ->166        -0.15544
     145 ->167         0.47160
     145 ->168        -0.44796
     145 ->169        -0.10863

 Excited state symmetry could not be determined.
 Excited State  58:      Singlet-?Sym    4.8016 eV  258.21 nm  f=0.0043  <S**2>=0.000
     132 ->146        -0.21255
     136 ->147        -0.22242
     137 ->147        -0.37400
     143 ->153         0.19148
     143 ->154         0.13124
     143 ->155         0.10334
     145 ->169         0.37729

 Excited state symmetry could not be determined.
 Excited State  59:      Singlet-?Sym    4.8186 eV  257.30 nm  f=0.0022  <S**2>=0.000
     141 ->148         0.11723
     142 ->148         0.66892

 Excited state symmetry could not be determined.
 Excited State  60:      Singlet-?Sym    4.8205 eV  257.20 nm  f=0.0222  <S**2>=0.000
     136 ->147         0.28757
     137 ->147         0.32524
     142 ->148         0.11824
     143 ->153         0.24845
     143 ->154        -0.18285
     143 ->155         0.23784
     145 ->169         0.28332

 Excited state symmetry could not be determined.
 Excited State  61:      Singlet-?Sym    4.8367 eV  256.34 nm  f=0.0103  <S**2>=0.000
     135 ->147         0.14337
     137 ->147         0.22689
     143 ->154         0.61584

 Excited state symmetry could not be determined.
 Excited State  62:      Singlet-?Sym    4.8546 eV  255.39 nm  f=0.0002  <S**2>=0.000
     141 ->148        -0.19871
     144 ->156         0.65466
     144 ->158         0.10394

 Excited state symmetry could not be determined.
 Excited State  63:      Singlet-?Sym    4.8565 eV  255.29 nm  f=0.0039  <S**2>=0.000
     141 ->148         0.56691
     142 ->148        -0.11348
     142 ->150        -0.12290
     144 ->156         0.19245
     145 ->169         0.15479
     145 ->170        -0.22367

 Excited state symmetry could not be determined.
 Excited State  64:      Singlet-?Sym    4.8612 eV  255.05 nm  f=0.0074  <S**2>=0.000
     136 ->147        -0.10888
     141 ->148         0.28235
     143 ->153         0.13287
     143 ->155         0.34168
     145 ->169        -0.23618
     145 ->170         0.38239

 Excited state symmetry could not be determined.
 Excited State  65:      Singlet-?Sym    4.8708 eV  254.55 nm  f=0.0291  <S**2>=0.000
     132 ->146        -0.17701
     135 ->147        -0.34122
     136 ->147         0.34527
     141 ->148         0.11675
     143 ->154         0.14510
     143 ->155        -0.20792
     145 ->170         0.27918

 Excited state symmetry could not be determined.
 Excited State  66:      Singlet-?Sym    4.8897 eV  253.56 nm  f=0.0067  <S**2>=0.000
     141 ->148         0.12377
     141 ->150         0.20492
     142 ->149        -0.30369
     142 ->150         0.51049
     145 ->170        -0.14930

 Excited state symmetry could not be determined.
 Excited State  67:      Singlet-?Sym    4.8956 eV  253.26 nm  f=0.0473  <S**2>=0.000
     132 ->146        -0.22230
     135 ->147         0.39905
     137 ->147         0.10045
     143 ->154        -0.12506
     143 ->155        -0.32420
     145 ->170         0.24393

 Excited state symmetry could not be determined.
 Excited State  68:      Singlet-?Sym    4.9239 eV  251.80 nm  f=0.1026  <S**2>=0.000
     135 ->147         0.24459
     136 ->147         0.33480
     137 ->147        -0.29121
     140 ->148         0.36849
     141 ->150         0.11210
     145 ->170        -0.13313

 Excited state symmetry could not be determined.
 Excited State  69:      Singlet-?Sym    4.9360 eV  251.18 nm  f=0.0061  <S**2>=0.000
     141 ->149        -0.31114
     141 ->150         0.42000
     142 ->149         0.38816

 Excited state symmetry could not be determined.
 Excited State  70:      Singlet-?Sym    4.9421 eV  250.88 nm  f=0.0035  <S**2>=0.000
     128 ->146        -0.10290
     131 ->146        -0.12837
     134 ->147         0.50213
     136 ->147         0.11332
     140 ->148        -0.30900
     144 ->157         0.18524
     144 ->159         0.14058
     144 ->160        -0.11485

 Excited state symmetry could not be determined.
 Excited State  71:      Singlet-?Sym    4.9431 eV  250.82 nm  f=0.0192  <S**2>=0.000
     134 ->147        -0.24671
     140 ->148         0.10727
     142 ->149        -0.20007
     144 ->157         0.38103
     144 ->158        -0.11077
     144 ->159         0.28615
     144 ->160        -0.23933
     144 ->161         0.13789
     144 ->162        -0.15047

 Excited state symmetry could not be determined.
 Excited State  72:      Singlet-?Sym    4.9507 eV  250.44 nm  f=0.0007  <S**2>=0.000
     141 ->149         0.22481
     141 ->150        -0.20484
     142 ->149         0.43104
     142 ->150         0.31851
     144 ->157         0.13333
     144 ->159         0.10959
     145 ->171        -0.16211

 Excited state symmetry could not be determined.
 Excited State  73:      Singlet-?Sym    4.9547 eV  250.23 nm  f=0.0132  <S**2>=0.000
     134 ->147         0.30884
     135 ->147        -0.26438
     136 ->147        -0.20091
     137 ->147         0.21081
     140 ->148         0.45877

 Excited state symmetry could not be determined.
 Excited State  74:      Singlet-?Sym    4.9625 eV  249.84 nm  f=0.0052  <S**2>=0.000
     132 ->146         0.21321
     140 ->148         0.12022
     141 ->149         0.14549
     142 ->149         0.11222
     142 ->150         0.12753
     145 ->169         0.17426
     145 ->171         0.54698
     145 ->173        -0.10178
     145 ->174         0.13174

 Excited state symmetry could not be determined.
 Excited State  75:      Singlet-?Sym    4.9848 eV  248.72 nm  f=0.0006  <S**2>=0.000
     141 ->149         0.56015
     141 ->150         0.35811

 Excited state symmetry could not be determined.
 Excited State  76:      Singlet-?Sym    5.0168 eV  247.14 nm  f=0.0027  <S**2>=0.000
     140 ->150        -0.12448
     145 ->170        -0.15466
     145 ->172         0.63187
     145 ->176        -0.10815

 Excited state symmetry could not be determined.
 Excited State  77:      Singlet-?Sym    5.0228 eV  246.84 nm  f=0.0083  <S**2>=0.000
     132 ->146        -0.36879
     145 ->170        -0.17223
     145 ->171         0.25191
     145 ->172        -0.10070
     145 ->173         0.42778
     145 ->174         0.15109

 Excited state symmetry could not be determined.
 Excited State  78:      Singlet-?Sym    5.0245 eV  246.76 nm  f=0.0038  <S**2>=0.000
     140 ->149        -0.32225
     140 ->150         0.41068
     144 ->157        -0.28971
     144 ->159         0.12132
     144 ->161         0.11719
     144 ->162        -0.15334
     145 ->172         0.15042

 Excited state symmetry could not be determined.
 Excited State  79:      Singlet-?Sym    5.0352 eV  246.24 nm  f=0.0093  <S**2>=0.000
     140 ->149        -0.28831
     140 ->150         0.25443
     144 ->157         0.37762
     144 ->159        -0.20521
     144 ->160         0.13818
     144 ->161        -0.16999
     144 ->162         0.24206
     144 ->164         0.10923

 Excited state symmetry could not be determined.
 Excited State  80:      Singlet-?Sym    5.0789 eV  244.12 nm  f=0.0052  <S**2>=0.000
     140 ->149         0.54009
     140 ->150         0.37931

 Excited state symmetry could not be determined.
 Excited State  81:      Singlet-?Sym    5.0863 eV  243.76 nm  f=0.0168  <S**2>=0.000
     132 ->146        -0.14657
     143 ->155         0.12223
     143 ->156        -0.29510
     144 ->158        -0.16684
     144 ->161         0.11898
     144 ->162         0.13376
     144 ->163         0.40212
     145 ->173        -0.22912
     145 ->175        -0.11236

 Excited state symmetry could not be determined.
 Excited State  82:      Singlet-?Sym    5.0936 eV  243.41 nm  f=0.0031  <S**2>=0.000
     141 ->151         0.10941
     142 ->151         0.14089
     142 ->152        -0.14218
     142 ->153         0.14874
     143 ->156         0.51880
     143 ->159         0.10622
     144 ->158        -0.16778
     144 ->159        -0.10158
     144 ->161         0.10269
     144 ->163         0.12953

 Excited state symmetry could not be determined.
 Excited State  83:      Singlet-?Sym    5.0988 eV  243.16 nm  f=0.0082  <S**2>=0.000
     141 ->151        -0.19885
     141 ->152         0.11095
     141 ->153        -0.10455
     142 ->150        -0.10487
     142 ->151        -0.25628
     142 ->152         0.26031
     142 ->153        -0.22583
     142 ->155         0.12734
     143 ->156         0.30928
     143 ->159        -0.12323
     143 ->162         0.13160
     144 ->163         0.17411

 Alpha  occ. eigenvalues --  -19.07114 -14.46172 -10.28836 -10.28782 -10.25549
 Alpha  occ. eigenvalues --  -10.24030 -10.24003 -10.23681 -10.23092 -10.22879
 Alpha  occ. eigenvalues --  -10.22558 -10.22553 -10.22324 -10.22291 -10.22240
 Alpha  occ. eigenvalues --  -10.22191 -10.21711 -10.21626 -10.21472 -10.21340
 Alpha  occ. eigenvalues --  -10.21273 -10.21117 -10.21112 -10.21014 -10.20939
 Alpha  occ. eigenvalues --  -10.20883 -10.20731 -10.18420 -10.18358 -10.17775
 Alpha  occ. eigenvalues --  -10.17707 -10.17299 -10.17254 -10.17241 -10.17190
 Alpha  occ. eigenvalues --  -10.17130 -10.17125 -10.17095 -10.16952 -10.16888
 Alpha  occ. eigenvalues --  -10.16876 -10.16204 -10.16199  -1.04886  -0.97561
 Alpha  occ. eigenvalues --   -0.90786  -0.89626  -0.88505  -0.87628  -0.84782
 Alpha  occ. eigenvalues --   -0.84218  -0.84114  -0.82882  -0.79605  -0.78389
 Alpha  occ. eigenvalues --   -0.78033  -0.77334  -0.77267  -0.77043  -0.75751
 Alpha  occ. eigenvalues --   -0.74795  -0.72745  -0.72686  -0.71150  -0.71022
 Alpha  occ. eigenvalues --   -0.69710  -0.67951  -0.64689  -0.64214  -0.63207
 Alpha  occ. eigenvalues --   -0.62986  -0.62144  -0.61678  -0.61430  -0.59944
 Alpha  occ. eigenvalues --   -0.59232  -0.58600  -0.58060  -0.56414  -0.55971
 Alpha  occ. eigenvalues --   -0.55152  -0.54401  -0.53786  -0.53698  -0.50708
 Alpha  occ. eigenvalues --   -0.50298  -0.50136  -0.49053  -0.48998  -0.48670
 Alpha  occ. eigenvalues --   -0.48050  -0.48015  -0.47505  -0.46866  -0.45972
 Alpha  occ. eigenvalues --   -0.45745  -0.45464  -0.45273  -0.44792  -0.44474
 Alpha  occ. eigenvalues --   -0.44203  -0.44112  -0.43318  -0.43083  -0.42498
 Alpha  occ. eigenvalues --   -0.42309  -0.41801  -0.41190  -0.40684  -0.40362
 Alpha  occ. eigenvalues --   -0.40041  -0.39926  -0.39425  -0.39342  -0.38503
 Alpha  occ. eigenvalues --   -0.37883  -0.37746  -0.37274  -0.37040  -0.36846
 Alpha  occ. eigenvalues --   -0.36666  -0.36437  -0.35826  -0.35228  -0.34744
 Alpha  occ. eigenvalues --   -0.34126  -0.33016  -0.32468  -0.32327  -0.32204
 Alpha  occ. eigenvalues --   -0.32076  -0.31019  -0.28803  -0.27923  -0.27754
 Alpha  occ. eigenvalues --   -0.27588  -0.27191  -0.26887  -0.26268  -0.23838
 Alpha  occ. eigenvalues --   -0.23433  -0.23296  -0.20997  -0.19976  -0.16447
 Alpha virt. eigenvalues --   -0.10514  -0.07343  -0.04249  -0.04187  -0.03470
 Alpha virt. eigenvalues --   -0.02770  -0.02470  -0.02062  -0.01557  -0.01491
 Alpha virt. eigenvalues --   -0.00822  -0.00354   0.00600   0.00800   0.00914

 Mulliken charges:
               1
     1  C   -0.613800
     2  C    0.270695
     3  C   -0.727642
     4  C    0.208679
     5  C   -0.644183
     6  C   -0.583676
     7  N    0.427729
     8  C    0.100801
     9  C    0.232600
    10  O   -0.556611
    11  C   -0.567984
    12  C   -0.620973
    13  H    0.196257
    14  H    0.201092
    15  H    0.223632
    16  H    0.223535
    17  C    0.936082
    18  C    0.117508
    19  C   -0.231634
    20  C   -0.221198
    21  C   -0.287827
    22  C   -0.533338
    23  H    0.167797
    24  H    0.165684
    25  H    0.193598
    26  H    0.211797
    27  H    0.171178
    28  C   -0.288984
    29  C   -0.580831
    30  C   -0.008270
    31  C   -0.752799
    32  C   -0.332437
    33  H    0.212492
    34  H    0.170787
    35  H    0.167726
    36  H    0.166347
    37  H    0.166122
    38  C   -0.245589
    39  C   -0.392801
    40  C   -0.418750
    41  C   -0.246818
    42  C   -0.280300
    43  H    0.184832
    44  H    0.187275
    45  H    0.188080
    46  H    0.188078
    47  H    0.185183
    48  C   -0.039630
    49  C   -0.157346
    50  C   -0.342021
    51  C   -0.124490
    52  C   -0.260151
    53  H    0.186991
    54  H    0.184836
    55  H    0.185031
    56  H    0.190112
    57  H    0.215945
    58  C   -0.013496
    59  C   -0.027856
    60  C   -0.362199
    61  C   -0.276988
    62  C   -0.078495
    63  H    0.191050
    64  H    0.184769
    65  H    0.185711
    66  H    0.192162
    67  H    0.212726
    68  C    0.778485
    69  C    1.309265
    70  C    1.010253
    71  C    0.038602
    72  C   -0.112407
 Sum of Mulliken charges =   0.00000

 Dipole moment (field-independent basis, Debye):
    X=            -13.0497    Y=             -0.1125    Z=             -0.2636  Tot=             13.0529
 Quadrupole moment (field-independent basis, Debye-Ang):
   XX=           -250.1628   YY=           -227.0551   ZZ=           -248.2885
   XY=             -2.4988   XZ=             -5.4810   YZ=              8.2026

 Normal termination of Gaussian DV at Thu Nov  8 21:49:52 2018.
